version 2
run SwitchedWlans-0-20140414-13:00:42-3942
attr configname SwitchedWlans
attr datetime 20140414-13:00:42
attr experiment SwitchedWlans
attr inifile prueba3.ini
attr iterationvars ""
attr iterationvars2 $repetition=0
attr measurement ""
attr network arppathbridgesunidireccional.src.topologies.Prueba2
attr processid 3942
attr repetition 0
attr replication #0
attr resultdir results
attr runnumber 0
attr seedset 0

vector 11  Prueba2.accessPoint1.wlan[0].mgmt  dataQueueLen:vector  ETV
attr interpolationmode  sample-hold
attr title  "data queue length, vector"
vector 28  Prueba2.accessPoint2.wlan[0].mgmt  dataQueueLen:vector  ETV
attr interpolationmode  sample-hold
attr title  "data queue length, vector"
vector 46  Prueba2.host2.wlan[0].mgmt  dataQueueLen:vector  ETV
attr interpolationmode  sample-hold
attr title  "data queue length, vector"
vector 67  Prueba2.host1.wlan[0].mgmt  dataQueueLen:vector  ETV
attr interpolationmode  sample-hold
attr title  "data queue length, vector"
vector 76  Prueba2.accessPoint1.wlan[0].mac  RadioState  ETV
attr enum  "IDLE=0, RECV=1, SLEEP=3, TRANSMIT=2"
attr enumname  RadioState
vector 75  Prueba2.accessPoint1.wlan[0].mac  State  ETV
attr enum  "BACKOFF=3, DEFER=1, IDLE=0, RECEIVE=8, WAITACK=4, WAITAIFS=2, WAITCTS=6, WAITMULTICAST=5, WAITSIFS=7"
attr enumname  Ieee80211Mac
vector 88  Prueba2.accessPoint2.wlan[0].mac  RadioState  ETV
attr enum  "IDLE=0, RECV=1, SLEEP=3, TRANSMIT=2"
attr enumname  RadioState
vector 87  Prueba2.accessPoint2.wlan[0].mac  State  ETV
attr enum  "BACKOFF=3, DEFER=1, IDLE=0, RECEIVE=8, WAITACK=4, WAITAIFS=2, WAITCTS=6, WAITMULTICAST=5, WAITSIFS=7"
attr enumname  Ieee80211Mac
vector 98  Prueba2.host2.wlan[0].mac  RadioState  ETV
attr enum  "IDLE=0, RECV=1, SLEEP=3, TRANSMIT=2"
attr enumname  RadioState
vector 97  Prueba2.host2.wlan[0].mac  State  ETV
attr enum  "BACKOFF=3, DEFER=1, IDLE=0, RECEIVE=8, WAITACK=4, WAITAIFS=2, WAITCTS=6, WAITMULTICAST=5, WAITSIFS=7"
attr enumname  Ieee80211Mac
vector 104  Prueba2.host1.wlan[0].mac  RadioState  ETV
attr enum  "IDLE=0, RECV=1, SLEEP=3, TRANSMIT=2"
attr enumname  RadioState
vector 103  Prueba2.host1.wlan[0].mac  State  ETV
attr enum  "BACKOFF=3, DEFER=1, IDLE=0, RECEIVE=8, WAITACK=4, WAITAIFS=2, WAITCTS=6, WAITMULTICAST=5, WAITSIFS=7"
attr enumname  Ieee80211Mac
vector 13  Prueba2.accessPoint1.wlan[0].radio  bitrate:vector  ETV
attr interpolationmode  sample-hold
attr title  "tx bitrate, vector"
attr unit  bps
vector 15  Prueba2.accessPoint1.wlan[0].radio  radioState:vector  ETV
attr interpolationmode  sample-hold
attr title  "radio state (enum), vector"
vector 14  Prueba2.accessPoint1.wlan[0].radio  channelNo:vector  ETV
attr interpolationmode  sample-hold
attr title  "channel no, vector"
vector 30  Prueba2.accessPoint2.wlan[0].radio  bitrate:vector  ETV
attr interpolationmode  sample-hold
attr title  "tx bitrate, vector"
attr unit  bps
vector 32  Prueba2.accessPoint2.wlan[0].radio  radioState:vector  ETV
attr interpolationmode  sample-hold
attr title  "radio state (enum), vector"
vector 31  Prueba2.accessPoint2.wlan[0].radio  channelNo:vector  ETV
attr interpolationmode  sample-hold
attr title  "channel no, vector"
vector 48  Prueba2.host2.wlan[0].radio  bitrate:vector  ETV
attr interpolationmode  sample-hold
attr title  "tx bitrate, vector"
attr unit  bps
vector 50  Prueba2.host2.wlan[0].radio  radioState:vector  ETV
attr interpolationmode  sample-hold
attr title  "radio state (enum), vector"
vector 49  Prueba2.host2.wlan[0].radio  channelNo:vector  ETV
attr interpolationmode  sample-hold
attr title  "channel no, vector"
vector 69  Prueba2.host1.wlan[0].radio  bitrate:vector  ETV
attr interpolationmode  sample-hold
attr title  "tx bitrate, vector"
attr unit  bps
vector 71  Prueba2.host1.wlan[0].radio  radioState:vector  ETV
attr interpolationmode  sample-hold
attr title  "radio state (enum), vector"
vector 70  Prueba2.host1.wlan[0].radio  channelNo:vector  ETV
attr interpolationmode  sample-hold
attr title  "channel no, vector"
vector 108  Prueba2.host1.wlan[0].radio  snirVector  ETV
vector 102  Prueba2.host2.wlan[0].radio  snirVector  ETV
vector 78  Prueba2.accessPoint1.wlan[0].mac  "throughput AC0"  ETV
vector 106  Prueba2.host1.wlan[0].mac  "throughput AC0"  ETV
vector 100  Prueba2.host2.wlan[0].mac  "throughput AC0"  ETV
vector 43  Prueba2.host2.wlan[0].agent  sentRequest:vector  ETV
attr title  "sent requests, vector"
vector 90  Prueba2.accessPoint2.wlan[0].mac  "throughput AC0"  ETV
vector 64  Prueba2.host1.wlan[0].agent  sentRequest:vector  ETV
attr title  "sent requests, vector"
vector 80  Prueba2.accessPoint1.wlan[0].radio  snirVector  ETV
vector 79  Prueba2.accessPoint1.wlan[0].mac  "Mac delay AC0"  ETV
vector 77  Prueba2.accessPoint1.wlan[0].mac  "jitter AC0"  ETV
vector 92  Prueba2.accessPoint2.wlan[0].radio  snirVector  ETV
vector 91  Prueba2.accessPoint2.wlan[0].mac  "Mac delay AC0"  ETV
vector 89  Prueba2.accessPoint2.wlan[0].mac  "jitter AC0"  ETV
vector 44  Prueba2.host2.wlan[0].agent  acceptConfirm:vector  ETV
attr title  "accepted confirms, vector"
vector 101  Prueba2.host2.wlan[0].mac  "Mac delay AC0"  ETV
vector 53  Prueba2.host1.udpApp[0]  sentPk:vector(packetBytes)  ETV
attr interpolationmode  none
attr source  sentPk
attr title  "packets sent, vector(packetBytes)"
vector 55  Prueba2.host1.udp  sentPk:vector(packetBytes)  ETV
attr interpolationmode  none
attr source  sentPk
attr title  "packets sent, vector(packetBytes)"
vector 60  Prueba2.host1.networkLayer.arp  sentReq:vector  ETV
attr title  "ARP request sent, vector"
vector 62  Prueba2.host1.networkLayer.arp  initiatedResolution:vector  ETV
attr title  "ARP initiated resolutions, vector"
vector 65  Prueba2.host1.wlan[0].agent  acceptConfirm:vector  ETV
attr title  "accepted confirms, vector"
vector 107  Prueba2.host1.wlan[0].mac  "Mac delay AC0"  ETV
vector 99  Prueba2.host2.wlan[0].mac  "jitter AC0"  ETV
vector 105  Prueba2.host1.wlan[0].mac  "jitter AC0"  ETV
vector 74  Prueba2.accessPoint1.relayUnit  "queue length"  ETV
vector 73  Prueba2.accessPoint1.relayUnit  "buffer level"  ETV
vector 5  Prueba2.accessPoint1.mac[0]  rxPkFromHL:vector(packetBytes)  ETV
attr interpolationmode  none
attr source  rxPkFromHL
attr title  "packet bytes from higher layer, vector(packetBytes)"
vector 83  Prueba2.accessPoint1.mac[0]  "queue length"  ETV
vector 0  Prueba2.accessPoint1.mac[0]  txPk:vector(packetBytes)  ETV
attr interpolationmode  none
attr source  txPk
attr title  "packets transmitted, vector(packetBytes)"
vector 82  Prueba2.accessPoint1.mac[0]  "processing times"  ETV
vector 18  Prueba2.accessPoint2.mac[0]  rxPkOk:vector(packetBytes)  ETV
attr interpolationmode  none
attr source  rxPkOk
attr title  "packets received OK, vector(packetBytes)"
vector 19  Prueba2.accessPoint2.mac[0]  passedUpPk:vector(packetBytes)  ETV
attr interpolationmode  none
attr source  packetSentToUpper
attr title  "packets passed to higher layer, vector(packetBytes)"
vector 86  Prueba2.accessPoint2.relayUnit  "queue length"  ETV
vector 85  Prueba2.accessPoint2.relayUnit  "buffer level"  ETV
vector 22  Prueba2.accessPoint2.mac[0]  rxPkFromHL:vector(packetBytes)  ETV
attr interpolationmode  none
attr source  rxPkFromHL
attr title  "packet bytes from higher layer, vector(packetBytes)"
vector 95  Prueba2.accessPoint2.mac[0]  "queue length"  ETV
vector 17  Prueba2.accessPoint2.mac[0]  txPk:vector(packetBytes)  ETV
attr interpolationmode  none
attr source  txPk
attr title  "packets transmitted, vector(packetBytes)"
vector 94  Prueba2.accessPoint2.mac[0]  "processing times"  ETV
vector 1  Prueba2.accessPoint1.mac[0]  rxPkOk:vector(packetBytes)  ETV
attr interpolationmode  none
attr source  rxPkOk
attr title  "packets received OK, vector(packetBytes)"
vector 2  Prueba2.accessPoint1.mac[0]  passedUpPk:vector(packetBytes)  ETV
attr interpolationmode  none
attr source  packetSentToUpper
attr title  "packets passed to higher layer, vector(packetBytes)"
vector 72  Prueba2.host1.wlan[0].radio  lossRate:vector  ETV
attr interpolationmode  backward-sample-hold
attr title  "packet loss rate, vector"
vector 35  Prueba2.host2.udp  rcvdPk:vector(packetBytes)  ETV
attr interpolationmode  none
attr source  rcvdPk
attr title  "packets received, vector(packetBytes)"
vector 37  Prueba2.host2.udp  droppedPkWrongPort:vector(count)  ETV
attr interpolationmode  none
attr title  "packets dropped (wrong port), vector(count)"
0	1015	2.000280165981	64
0	1132	2.002744177945	528
0	1180	2.003827069909	528
1	1058	2.001062575616	64
1	1204	2.00412958758	64
2	1058	2.001062575616	64
2	1204	2.00412958758	64
5	1012	2.000273445982	64
5	1126	2.002700337946	528
5	1173	2.00378322991	528
11	0	0	0
13	0	0	11000000
14	0	0	0
15	0	0	0
15	5	0.060304337037	2
15	5	0.060304337037	2
15	9	0.060808337037	0
15	9	0.060808337037	0
15	29	0.160304337037	2
15	29	0.160304337037	2
15	33	0.160808337037	0
15	33	0.160808337037	0
15	61	0.260304337037	2
15	61	0.260304337037	2
15	65	0.260808337037	0
15	65	0.260808337037	0
15	78	0.263493917723	1
15	78	0.263493917723	1
15	82	0.263845917723	0
15	82	0.263845917723	0
15	91	0.263873917723	2
15	91	0.263873917723	2
15	94	0.264122917722	0
15	94	0.264122917722	0
15	103	0.26413484674	1
15	103	0.26413484674	1
15	107	0.26438284674	0
15	107	0.26438284674	0
15	125	0.354203967159	1
15	125	0.354203967159	1
15	129	0.354555967159	0
15	129	0.354555967159	0
15	138	0.354583967159	2
15	138	0.354583967159	2
15	141	0.354832967158	0
15	141	0.354832967158	0
15	150	0.354843859122	1
15	150	0.354843859122	1
15	153	0.355091859122	0
15	153	0.355091859122	0
15	163	0.360304337037	2
15	163	0.360304337037	2
15	167	0.360808337037	0
15	167	0.360808337037	0
15	188	0.460304337037	2
15	188	0.460304337037	2
15	192	0.460808337037	0
15	192	0.460808337037	0
15	213	0.560304337037	2
15	213	0.560304337037	2
15	217	0.560808337037	0
15	217	0.560808337037	0
15	247	0.660304337037	2
15	247	0.660304337037	2
15	249	0.660808337037	0
15	249	0.660808337037	0
15	349	0.760304337037	2
15	349	0.760304337037	2
15	351	0.760808337037	0
15	351	0.760808337037	0
15	374	0.860304337037	2
15	374	0.860304337037	2
15	376	0.860808337037	0
15	376	0.860808337037	0
15	399	0.960304337037	2
15	399	0.960304337037	2
15	401	0.960808337037	0
15	401	0.960808337037	0
15	592	1.054203967159	1
15	592	1.054203967159	1
15	594	1.054420967159	0
15	594	1.054420967159	0
15	599	1.054430967159	2
15	599	1.054430967159	2
15	601	1.054678967159	0
15	601	1.054678967159	0
15	607	1.054715967159	2
15	607	1.054715967159	2
15	609	1.054932967159	0
15	609	1.054932967159	0
15	616	1.054943859123	1
15	616	1.054943859123	1
15	618	1.055191859123	0
15	618	1.055191859123	0
15	624	1.055444859123	1
15	624	1.055444859123	1
15	626	1.055661859123	0
15	626	1.055661859123	0
15	631	1.055671859123	2
15	631	1.055671859123	2
15	633	1.055919859123	0
15	633	1.055919859123	0
15	638	1.055947859123	2
15	638	1.055947859123	2
15	641	1.056164859123	0
15	641	1.056164859123	0
15	652	1.056175751087	1
15	652	1.056175751087	1
15	654	1.056423751087	0
15	654	1.056423751087	0
15	660	1.056541751087	1
15	660	1.056541751087	1
15	662	1.056765751087	0
15	662	1.056765751087	0
15	667	1.056775751087	2
15	667	1.056775751087	2
15	669	1.057023751087	0
15	669	1.057023751087	0
15	676	1.057258751087	2
15	676	1.057258751087	2
15	682	1.057490751087	0
15	682	1.057490751087	0
15	689	1.057501643051	1
15	689	1.057501643051	1
15	691	1.057749643051	0
15	691	1.057749643051	0
15	698	1.060304337037	2
15	698	1.060304337037	2
15	701	1.060808337037	0
15	701	1.060808337037	0
15	734	1.160304337037	2
15	734	1.160304337037	2
15	737	1.160808337037	0
15	737	1.160808337037	0
15	766	1.260304337037	2
15	766	1.260304337037	2
15	769	1.260808337037	0
15	769	1.260808337037	0
15	794	1.360304337037	2
15	794	1.360304337037	2
15	797	1.360808337037	0
15	797	1.360808337037	0
15	826	1.460304337037	2
15	826	1.460304337037	2
15	829	1.460808337037	0
15	829	1.460808337037	0
15	850	1.560304337037	2
15	850	1.560304337037	2
15	853	1.560808337037	0
15	853	1.560808337037	0
15	882	1.660304337037	2
15	882	1.660304337037	2
15	885	1.660808337037	0
15	885	1.660808337037	0
15	918	1.760304337037	2
15	918	1.760304337037	2
15	921	1.760808337037	0
15	921	1.760808337037	0
15	954	1.860304337037	2
15	954	1.860304337037	2
15	957	1.860808337037	0
15	957	1.860808337037	0
15	978	1.960304337037	2
15	978	1.960304337037	2
15	981	1.960808337037	0
15	981	1.960808337037	0
15	1004	2.000028445982	1
15	1004	2.000028445982	1
15	1006	2.000271445982	0
15	1006	2.000271445982	0
15	1019	2.000281445982	2
15	1019	2.000281445982	2
15	1027	2.000529445982	0
15	1027	2.000529445982	0
15	1033	2.000692445982	2
15	1033	2.000692445982	2
15	1067	2.001164445982	0
15	1067	2.001164445982	0
15	1078	2.001426445982	2
15	1078	2.001426445982	2
15	1081	2.001669445982	0
15	1081	2.001669445982	0
15	1110	2.001680337946	1
15	1110	2.001680337946	1
15	1112	2.001928337946	0
15	1112	2.001928337946	0
15	1119	2.002091337946	1
15	1119	2.002091337946	1
15	1121	2.002698337946	0
15	1121	2.002698337946	0
15	1130	2.002708337946	2
15	1130	2.002708337946	2
15	1141	2.002956337946	0
15	1141	2.002956337946	0
15	1148	2.00317422991	1
15	1148	2.00317422991	1
15	1168	2.00378122991	0
15	1168	2.00378122991	0
15	1177	2.00379122991	2
15	1177	2.00379122991	2
15	1189	2.00403922991	0
15	1189	2.00403922991	0
15	1213	2.00415958758	2
15	1213	2.00415958758	2
15	1220	2.00442358758	0
15	1220	2.00442358758	0
17	1057	2.001062575616	64
17	1203	2.00412958758	64
18	1016	2.000280165981	64
18	1133	2.002744177945	528
18	1181	2.003827069909	528
19	1016	2.000280165981	64
19	1133	2.002744177945	528
19	1181	2.003827069909	528
22	1054	2.001055855617	64
22	1200	2.004122867581	64
28	0	0	0
30	0	0	11000000
31	0	0	1
32	0	0	0
32	21	0.085822561984	2
32	21	0.085822561984	2
32	23	0.086326561984	0
32	23	0.086326561984	0
32	49	0.185822561984	2
32	49	0.185822561984	2
32	51	0.186326561984	0
32	51	0.186326561984	0
32	116	0.285822561984	2
32	116	0.285822561984	2
32	118	0.286326561984	0
32	118	0.286326561984	0
32	179	0.385822561984	2
32	179	0.385822561984	2
32	181	0.386326561984	0
32	181	0.386326561984	0
32	204	0.485822561984	2
32	204	0.485822561984	2
32	206	0.486326561984	0
32	206	0.486326561984	0
32	232	0.585822561984	2
32	232	0.585822561984	2
32	235	0.586326561984	0
32	235	0.586326561984	0
32	256	0.663493298032	1
32	256	0.663493298032	1
32	260	0.663845298032	0
32	260	0.663845298032	0
32	269	0.663873298032	2
32	269	0.663873298032	2
32	272	0.664122298031	0
32	272	0.664122298031	0
32	281	0.664132987667	1
32	281	0.664132987667	1
32	284	0.664380987667	0
32	284	0.664380987667	0
32	294	0.685822561984	2
32	294	0.685822561984	2
32	298	0.686326561984	0
32	298	0.686326561984	0
32	311	0.754204618633	1
32	311	0.754204618633	1
32	315	0.754556618633	0
32	315	0.754556618633	0
32	324	0.754584618633	2
32	324	0.754584618633	2
32	327	0.754833618632	0
32	327	0.754833618632	0
32	336	0.754845813544	1
32	336	0.754845813544	1
32	340	0.755093813544	0
32	340	0.755093813544	0
32	357	0.785822561984	2
32	357	0.785822561984	2
32	361	0.786326561984	0
32	361	0.786326561984	0
32	382	0.885822561984	2
32	382	0.885822561984	2
32	386	0.886326561984	0
32	386	0.886326561984	0
32	412	0.963493298032	1
32	412	0.963493298032	1
32	415	0.963710298032	0
32	415	0.963710298032	0
32	423	0.963720298032	2
32	423	0.963720298032	2
32	426	0.963968298032	0
32	426	0.963968298032	0
32	435	0.964041298032	2
32	435	0.964041298032	2
32	438	0.964258298032	0
32	438	0.964258298032	0
32	448	0.964268987668	1
32	448	0.964268987668	1
32	451	0.964516987668	0
32	451	0.964516987668	0
32	461	0.964679987668	1
32	461	0.964679987668	1
32	464	0.964896987668	0
32	464	0.964896987668	0
32	472	0.964906987668	2
32	472	0.964906987668	2
32	475	0.965154987668	0
32	475	0.965154987668	0
32	483	0.965182987668	2
32	483	0.965182987668	2
32	487	0.965399987668	0
32	487	0.965399987668	0
32	501	0.965410677304	1
32	501	0.965410677304	1
32	504	0.965658677304	0
32	504	0.965658677304	0
32	513	0.965713677304	1
32	513	0.965713677304	1
32	516	0.965937677304	0
32	516	0.965937677304	0
32	524	0.965947677304	2
32	524	0.965947677304	2
32	527	0.966195677304	0
32	527	0.966195677304	0
32	536	0.966376677304	2
32	536	0.966376677304	2
32	539	0.966608677304	0
32	539	0.966608677304	0
32	549	0.96661936694	1
32	549	0.96661936694	1
32	552	0.96686736694	0
32	552	0.96686736694	0
32	562	0.985822561984	2
32	562	0.985822561984	2
32	566	0.986326561984	0
32	566	0.986326561984	0
32	710	1.085822561984	2
32	710	1.085822561984	2
32	713	1.086326561984	0
32	713	1.086326561984	0
32	750	1.185822561984	2
32	750	1.185822561984	2
32	753	1.186326561984	0
32	753	1.186326561984	0
32	778	1.285822561984	2
32	778	1.285822561984	2
32	781	1.286326561984	0
32	781	1.286326561984	0
32	810	1.385822561984	2
32	810	1.385822561984	2
32	813	1.386326561984	0
32	813	1.386326561984	0
32	838	1.485822561984	2
32	838	1.485822561984	2
32	841	1.486326561984	0
32	841	1.486326561984	0
32	862	1.585822561984	2
32	862	1.585822561984	2
32	865	1.586326561984	0
32	865	1.586326561984	0
32	894	1.685822561984	2
32	894	1.685822561984	2
32	897	1.686326561984	0
32	897	1.686326561984	0
32	938	1.785822561984	2
32	938	1.785822561984	2
32	941	1.786326561984	0
32	941	1.786326561984	0
32	966	1.885822561984	2
32	966	1.885822561984	2
32	969	1.886326561984	0
32	969	1.886326561984	0
32	990	1.985822561984	2
32	990	1.985822561984	2
32	993	1.986326561984	0
32	993	1.986326561984	0
32	1025	2.000310165981	2
32	1025	2.000310165981	2
32	1036	2.000782165981	0
32	1036	2.000782165981	0
32	1047	2.000810855617	1
32	1047	2.000810855617	1
32	1049	2.001053855617	0
32	1049	2.001053855617	0
32	1061	2.001063855617	2
32	1061	2.001063855617	2
32	1073	2.001311855617	0
32	1073	2.001311855617	0
32	1139	2.002774177945	2
32	1139	2.002774177945	2
32	1149	2.003381177945	0
32	1149	2.003381177945	0
32	1161	2.003391867581	1
32	1161	2.003391867581	1
32	1163	2.003639867581	0
32	1163	2.003639867581	0
32	1188	2.003856867581	1
32	1188	2.003856867581	1
32	1195	2.004120867581	0
32	1195	2.004120867581	0
32	1207	2.004130867581	2
32	1207	2.004130867581	2
32	1215	2.004378867581	0
32	1215	2.004378867581	0
35	1154	2.003381522763	508
37	1154	2.003381522763	1
43	42	0.163464953214	1
43	405	0.963464953214	2
43	491	0.965400332486	4
44	405	0.963464953214	1
44	491	0.965400332486	2
44	543	0.966609022122	4
46	0	0	0
48	0	0	11000000
49	0	0	0
49	228	0.563464953214	1
50	0	0	0
50	7	0.060305301546	1
50	7	0.060305301546	1
50	13	0.060809301546	0
50	13	0.060809301546	0
50	31	0.160305301546	1
50	31	0.160305301546	1
50	37	0.160809301546	0
50	37	0.160809301546	0
50	63	0.260305301546	1
50	63	0.260305301546	1
50	69	0.260809301546	0
50	69	0.260809301546	0
50	77	0.263492953214	2
50	77	0.263492953214	2
50	81	0.263844953214	0
50	81	0.263844953214	0
50	93	0.263874882232	1
50	93	0.263874882232	1
50	98	0.264123882231	0
50	98	0.264123882231	0
50	102	0.264133882231	2
50	102	0.264133882231	2
50	106	0.264381882231	0
50	106	0.264381882231	0
50	126	0.354204738213	1
50	126	0.354204738213	1
50	133	0.354556738213	0
50	133	0.354556738213	0
50	140	0.354584931668	1
50	140	0.354584931668	1
50	145	0.354833931667	0
50	145	0.354833931667	0
50	151	0.354844630176	1
50	151	0.354844630176	1
50	156	0.355092630176	0
50	156	0.355092630176	0
50	165	0.360305301546	1
50	165	0.360305301546	1
50	171	0.360809301546	0
50	171	0.360809301546	0
50	190	0.460305301546	1
50	190	0.460305301546	1
50	196	0.460809301546	0
50	196	0.460809301546	0
50	215	0.560305301546	1
50	215	0.560305301546	1
50	221	0.560809301546	0
50	221	0.560809301546	0
50	233	0.585822906802	1
50	233	0.585822906802	1
50	236	0.586326906802	0
50	236	0.586326906802	0
50	255	0.663492953214	2
50	255	0.663492953214	2
50	259	0.663844953214	0
50	259	0.663844953214	0
50	270	0.66387364285	1
50	270	0.66387364285	1
50	273	0.664122642849	0
50	273	0.664122642849	0
50	280	0.664132642849	2
50	280	0.664132642849	2
50	283	0.664380642849	0
50	283	0.664380642849	0
50	295	0.685822906802	1
50	295	0.685822906802	1
50	299	0.686326906802	0
50	299	0.686326906802	0
50	312	0.754204738213	1
50	312	0.754204738213	1
50	319	0.754556738213	0
50	319	0.754556738213	0
50	325	0.754584963451	1
50	325	0.754584963451	1
50	328	0.75483396345	0
50	328	0.75483396345	0
50	337	0.754845933124	1
50	337	0.754845933124	1
50	342	0.755093933124	0
50	342	0.755093933124	0
50	358	0.785822906802	1
50	358	0.785822906802	1
50	362	0.786326906802	0
50	362	0.786326906802	0
50	383	0.885822906802	1
50	383	0.885822906802	1
50	387	0.886326906802	0
50	387	0.886326906802	0
50	411	0.963492953214	2
50	411	0.963492953214	2
50	414	0.963709953214	0
50	414	0.963709953214	0
50	424	0.96372064285	1
50	424	0.96372064285	1
50	427	0.96396864285	0
50	427	0.96396864285	0
50	436	0.96404164285	1
50	436	0.96404164285	1
50	439	0.96425864285	0
50	439	0.96425864285	0
50	447	0.96426864285	2
50	447	0.96426864285	2
50	450	0.96451664285	0
50	450	0.96451664285	0
50	459	0.96467964285	2
50	459	0.96467964285	2
50	463	0.96489664285	0
50	463	0.96489664285	0
50	473	0.964907332486	1
50	473	0.964907332486	1
50	476	0.965155332486	0
50	476	0.965155332486	0
50	485	0.965183332486	1
50	485	0.965183332486	1
50	488	0.965400332486	0
50	488	0.965400332486	0
50	499	0.965410332486	2
50	499	0.965410332486	2
50	503	0.965658332486	0
50	503	0.965658332486	0
50	512	0.965713332486	2
50	512	0.965713332486	2
50	515	0.965937332486	0
50	515	0.965937332486	0
50	525	0.965948022122	1
50	525	0.965948022122	1
50	528	0.966196022122	0
50	528	0.966196022122	0
50	537	0.966377022122	1
50	537	0.966377022122	1
50	540	0.966609022122	0
50	540	0.966609022122	0
50	548	0.966619022122	2
50	548	0.966619022122	2
50	551	0.966867022122	0
50	551	0.966867022122	0
50	563	0.985822906802	1
50	563	0.985822906802	1
50	567	0.986326906802	0
50	567	0.986326906802	0
50	711	1.085822906802	1
50	711	1.085822906802	1
50	714	1.086326906802	0
50	714	1.086326906802	0
50	751	1.185822906802	1
50	751	1.185822906802	1
50	754	1.186326906802	0
50	754	1.186326906802	0
50	779	1.285822906802	1
50	779	1.285822906802	1
50	782	1.286326906802	0
50	782	1.286326906802	0
50	811	1.385822906802	1
50	811	1.385822906802	1
50	814	1.386326906802	0
50	814	1.386326906802	0
50	839	1.485822906802	1
50	839	1.485822906802	1
50	842	1.486326906802	0
50	842	1.486326906802	0
50	863	1.585822906802	1
50	863	1.585822906802	1
50	866	1.586326906802	0
50	866	1.586326906802	0
50	895	1.685822906802	1
50	895	1.685822906802	1
50	898	1.686326906802	0
50	898	1.686326906802	0
50	939	1.785822906802	1
50	939	1.785822906802	1
50	942	1.786326906802	0
50	942	1.786326906802	0
50	967	1.885822906802	1
50	967	1.885822906802	1
50	970	1.886326906802	0
50	970	1.886326906802	0
50	991	1.985822906802	1
50	991	1.985822906802	1
50	994	1.986326906802	0
50	994	1.986326906802	0
50	1026	2.000310510799	1
50	1026	2.000310510799	1
50	1037	2.000782510799	0
50	1037	2.000782510799	0
50	1046	2.000810510799	2
50	1046	2.000810510799	2
50	1048	2.001053510799	0
50	1048	2.001053510799	0
50	1062	2.001064200435	1
50	1062	2.001064200435	1
50	1074	2.001312200435	0
50	1074	2.001312200435	0
50	1140	2.002774522763	1
50	1140	2.002774522763	1
50	1150	2.003381522763	0
50	1150	2.003381522763	0
50	1160	2.003391522763	2
50	1160	2.003391522763	2
50	1162	2.003639522763	0
50	1162	2.003639522763	0
50	1187	2.003856522763	2
50	1187	2.003856522763	2
50	1194	2.004120522763	0
50	1194	2.004120522763	0
50	1208	2.004131212399	1
50	1208	2.004131212399	1
50	1216	2.004379212399	0
50	1216	2.004379212399	0
53	575	1	500
53	580	1.006293720471	500
53	678	1.057365314188	500
53	719	1.131778055475	500
53	723	1.139041956839	500
53	727	1.158630497372	500
53	743	1.166737321844	500
53	759	1.214714720712	500
53	787	1.331160389422	500
53	803	1.378635118596	500
53	819	1.438440508568	500
53	871	1.61345119279	500
53	875	1.635621394221	500
53	903	1.70507352871	500
53	907	1.724729156575	500
53	911	1.726688314395	500
53	927	1.776981864653	500
53	931	1.78236362006	500
53	947	1.794078695998	500
55	576	1	508
55	581	1.006293720471	508
55	679	1.057365314188	508
55	720	1.131778055475	508
55	724	1.139041956839	508
55	728	1.158630497372	508
55	744	1.166737321844	508
55	760	1.214714720712	508
55	788	1.331160389422	508
55	804	1.378635118596	508
55	820	1.438440508568	508
55	872	1.61345119279	508
55	876	1.635621394221	508
55	904	1.70507352871	508
55	908	1.724729156575	508
55	912	1.726688314395	508
55	928	1.776981864653	508
55	932	1.78236362006	508
55	948	1.794078695998	508
60	578	1	1
60	999	2	1
62	578	1	1
64	54	0.254175521177	1
64	585	1.054175521177	2
64	645	1.056165305105	4
65	585	1.054175521177	1
65	645	1.056165305105	2
65	686	1.057491197069	4
67	0	0	0
67	1089	2.001669891964	1
67	1090	2.001669891964	2
67	1091	2.001669891964	3
67	1092	2.001669891964	4
67	1093	2.001669891964	5
67	1094	2.001669891964	6
67	1095	2.001669891964	7
67	1096	2.001669891964	8
67	1097	2.001669891964	9
67	1098	2.001669891964	10
67	1099	2.001669891964	11
67	1100	2.001669891964	12
67	1101	2.001669891964	13
67	1102	2.001669891964	14
67	1103	2.001669891964	15
67	1104	2.001669891964	16
67	1105	2.001669891964	17
67	1143	2.002956783928	16
67	1191	2.004039675892	15
69	0	0	11000000
70	0	0	0
70	243	0.654175521177	1
70	589	1.054175521177	0
71	0	0	0
71	6	0.060304783019	1
71	6	0.060304783019	1
71	10	0.060808783019	0
71	10	0.060808783019	0
71	30	0.160304783019	1
71	30	0.160304783019	1
71	34	0.160808783019	0
71	34	0.160808783019	0
71	62	0.260304783019	1
71	62	0.260304783019	1
71	66	0.260808783019	0
71	66	0.260808783019	0
71	79	0.26349417025	1
71	79	0.26349417025	1
71	86	0.26384617025	0
71	86	0.26384617025	0
71	92	0.263874363705	1
71	92	0.263874363705	1
71	95	0.264123363704	0
71	95	0.264123363704	0
71	104	0.264135099267	1
71	104	0.264135099267	1
71	109	0.264383099267	0
71	109	0.264383099267	0
71	124	0.354203521177	2
71	124	0.354203521177	2
71	128	0.354555521177	0
71	128	0.354555521177	0
71	139	0.354584413141	1
71	139	0.354584413141	1
71	142	0.35483341314	0
71	142	0.35483341314	0
71	149	0.35484341314	2
71	149	0.35484341314	2
71	152	0.35509141314	0
71	152	0.35509141314	0
71	164	0.360304783019	1
71	164	0.360304783019	1
71	168	0.360808783019	0
71	168	0.360808783019	0
71	189	0.460304783019	1
71	189	0.460304783019	1
71	193	0.460808783019	0
71	193	0.460808783019	0
71	214	0.560304783019	1
71	214	0.560304783019	1
71	218	0.560808783019	0
71	218	0.560808783019	0
71	257	0.66349417025	1
71	257	0.66349417025	1
71	264	0.66384617025	0
71	264	0.66384617025	0
71	271	0.663874395488	1
71	271	0.663874395488	1
71	276	0.664123395487	0
71	276	0.664123395487	0
71	282	0.664133859885	1
71	282	0.664133859885	1
71	287	0.664381859885	0
71	287	0.664381859885	0
71	296	0.68582365944	1
71	296	0.68582365944	1
71	302	0.68632765944	0
71	302	0.68632765944	0
71	310	0.754203521177	2
71	310	0.754203521177	2
71	314	0.754555521177	0
71	314	0.754555521177	0
71	326	0.754585716089	1
71	326	0.754585716089	1
71	331	0.754834716088	0
71	331	0.754834716088	0
71	335	0.754844716088	2
71	335	0.754844716088	2
71	339	0.755092716088	0
71	339	0.755092716088	0
71	359	0.78582365944	1
71	359	0.78582365944	1
71	365	0.78632765944	0
71	365	0.78632765944	0
71	384	0.88582365944	1
71	384	0.88582365944	1
71	390	0.88632765944	0
71	390	0.88632765944	0
71	413	0.96349417025	1
71	413	0.96349417025	1
71	419	0.96371117025	0
71	419	0.96371117025	0
71	425	0.963721395488	1
71	425	0.963721395488	1
71	430	0.963969395488	0
71	430	0.963969395488	0
71	437	0.964042395488	1
71	437	0.964042395488	1
71	443	0.964259395488	0
71	443	0.964259395488	0
71	449	0.964269859886	1
71	449	0.964269859886	1
71	454	0.964517859886	0
71	454	0.964517859886	0
71	462	0.964680859886	1
71	462	0.964680859886	1
71	468	0.964897859886	0
71	468	0.964897859886	0
71	474	0.964908085124	1
71	474	0.964908085124	1
71	479	0.965156085124	0
71	479	0.965156085124	0
71	486	0.965184085124	1
71	486	0.965184085124	1
71	495	0.965401085124	0
71	495	0.965401085124	0
71	502	0.965411549522	1
71	502	0.965411549522	1
71	507	0.965659549522	0
71	507	0.965659549522	0
71	514	0.965714549522	1
71	514	0.965714549522	1
71	520	0.965938549522	0
71	520	0.965938549522	0
71	526	0.96594877476	1
71	526	0.96594877476	1
71	531	0.96619677476	0
71	531	0.96619677476	0
71	538	0.96637777476	1
71	538	0.96637777476	1
71	544	0.96660977476	0
71	544	0.96660977476	0
71	550	0.966620239158	1
71	550	0.966620239158	1
71	555	0.966868239158	0
71	555	0.966868239158	0
71	564	0.98582365944	1
71	564	0.98582365944	1
71	570	0.98632765944	0
71	570	0.98632765944	0
71	591	1.054203521177	2
71	591	1.054203521177	2
71	593	1.054420521177	0
71	593	1.054420521177	0
71	600	1.054431413141	1
71	600	1.054431413141	1
71	602	1.054679413141	0
71	602	1.054679413141	0
71	608	1.054716413141	1
71	608	1.054716413141	1
71	610	1.054933413141	0
71	610	1.054933413141	0
71	615	1.054943413141	2
71	615	1.054943413141	2
71	617	1.055191413141	0
71	617	1.055191413141	0
71	623	1.055444413141	2
71	623	1.055444413141	2
71	625	1.055661413141	0
71	625	1.055661413141	0
71	632	1.055672305105	1
71	632	1.055672305105	1
71	634	1.055920305105	0
71	634	1.055920305105	0
71	640	1.055948305105	1
71	640	1.055948305105	1
71	642	1.056165305105	0
71	642	1.056165305105	0
71	650	1.056175305105	2
71	650	1.056175305105	2
71	653	1.056423305105	0
71	653	1.056423305105	0
71	659	1.056541305105	2
71	659	1.056541305105	2
71	661	1.056765305105	0
71	661	1.056765305105	0
71	668	1.056776197069	1
71	668	1.056776197069	1
71	670	1.057024197069	0
71	670	1.057024197069	0
71	677	1.057259197069	1
71	677	1.057259197069	1
71	683	1.057491197069	0
71	683	1.057491197069	0
71	688	1.057501197069	2
71	688	1.057501197069	2
71	690	1.057749197069	0
71	690	1.057749197069	0
71	699	1.060304783019	1
71	699	1.060304783019	1
71	702	1.060808783019	0
71	702	1.060808783019	0
71	735	1.160304783019	1
71	735	1.160304783019	1
71	738	1.160808783019	0
71	738	1.160808783019	0
71	767	1.260304783019	1
71	767	1.260304783019	1
71	770	1.260808783019	0
71	770	1.260808783019	0
71	795	1.360304783019	1
71	795	1.360304783019	1
71	798	1.360808783019	0
71	798	1.360808783019	0
71	827	1.460304783019	1
71	827	1.460304783019	1
71	830	1.460808783019	0
71	830	1.460808783019	0
71	851	1.560304783019	1
71	851	1.560304783019	1
71	854	1.560808783019	0
71	854	1.560808783019	0
71	883	1.660304783019	1
71	883	1.660304783019	1
71	886	1.660808783019	0
71	886	1.660808783019	0
71	919	1.760304783019	1
71	919	1.760304783019	1
71	922	1.760808783019	0