version 2
run General-0-20140720-19:43:43-3971
attr configname General
attr datetime 20140720-19:43:43
attr experiment General
attr inifile pruebaAdHoc4.ini
attr iterationvars ""
attr iterationvars2 $repetition=0
attr measurement ""
attr network arppathbridgesunidireccional.src.topologies.PruebaAdHoc4
attr processid 3971
attr repetition 0
attr replication #0
attr resultdir results
attr runnumber 0
attr seedset 0

vector 12  PruebaAdHoc4.host1.wlan[0].mgmt  dataQueueLen:vector  ETV
attr interpolationmode  sample-hold
attr title  "data queue length, vector"
vector 27  PruebaAdHoc4.host2.wlan[0].mgmt  dataQueueLen:vector  ETV
attr interpolationmode  sample-hold
attr title  "data queue length, vector"
vector 42  PruebaAdHoc4.host3.wlan[0].mgmt  dataQueueLen:vector  ETV
attr interpolationmode  sample-hold
attr title  "data queue length, vector"
vector 57  PruebaAdHoc4.host4.wlan[0].mgmt  dataQueueLen:vector  ETV
attr interpolationmode  sample-hold
attr title  "data queue length, vector"
vector 72  PruebaAdHoc4.host5.wlan[0].mgmt  dataQueueLen:vector  ETV
attr interpolationmode  sample-hold
attr title  "data queue length, vector"
vector 87  PruebaAdHoc4.host6.wlan[0].mgmt  dataQueueLen:vector  ETV
attr interpolationmode  sample-hold
attr title  "data queue length, vector"
vector 102  PruebaAdHoc4.host7.wlan[0].mgmt  dataQueueLen:vector  ETV
attr interpolationmode  sample-hold
attr title  "data queue length, vector"
vector 120  PruebaAdHoc4.host8.wlan[0].mgmt  dataQueueLen:vector  ETV
attr interpolationmode  sample-hold
attr title  "data queue length, vector"
vector 135  PruebaAdHoc4.host9.wlan[0].mgmt  dataQueueLen:vector  ETV
attr interpolationmode  sample-hold
attr title  "data queue length, vector"
vector 142  PruebaAdHoc4.host1.wlan[0].mac  RadioState  ETV
attr enum  "IDLE=0, RECV=1, SLEEP=3, TRANSMIT=2"
attr enumname  RadioState
vector 141  PruebaAdHoc4.host1.wlan[0].mac  State  ETV
attr enum  "BACKOFF=3, DEFER=1, IDLE=0, RECEIVE=8, WAITACK=4, WAITAIFS=2, WAITCTS=6, WAITMULTICAST=5, WAITSIFS=7"
attr enumname  Ieee80211Mac
vector 150  PruebaAdHoc4.host2.wlan[0].mac  RadioState  ETV
attr enum  "IDLE=0, RECV=1, SLEEP=3, TRANSMIT=2"
attr enumname  RadioState
vector 149  PruebaAdHoc4.host2.wlan[0].mac  State  ETV
attr enum  "BACKOFF=3, DEFER=1, IDLE=0, RECEIVE=8, WAITACK=4, WAITAIFS=2, WAITCTS=6, WAITMULTICAST=5, WAITSIFS=7"
attr enumname  Ieee80211Mac
vector 158  PruebaAdHoc4.host3.wlan[0].mac  RadioState  ETV
attr enum  "IDLE=0, RECV=1, SLEEP=3, TRANSMIT=2"
attr enumname  RadioState
vector 157  PruebaAdHoc4.host3.wlan[0].mac  State  ETV
attr enum  "BACKOFF=3, DEFER=1, IDLE=0, RECEIVE=8, WAITACK=4, WAITAIFS=2, WAITCTS=6, WAITMULTICAST=5, WAITSIFS=7"
attr enumname  Ieee80211Mac
vector 166  PruebaAdHoc4.host4.wlan[0].mac  RadioState  ETV
attr enum  "IDLE=0, RECV=1, SLEEP=3, TRANSMIT=2"
attr enumname  RadioState
vector 165  PruebaAdHoc4.host4.wlan[0].mac  State  ETV
attr enum  "BACKOFF=3, DEFER=1, IDLE=0, RECEIVE=8, WAITACK=4, WAITAIFS=2, WAITCTS=6, WAITMULTICAST=5, WAITSIFS=7"
attr enumname  Ieee80211Mac
vector 174  PruebaAdHoc4.host5.wlan[0].mac  RadioState  ETV
attr enum  "IDLE=0, RECV=1, SLEEP=3, TRANSMIT=2"
attr enumname  RadioState
vector 173  PruebaAdHoc4.host5.wlan[0].mac  State  ETV
attr enum  "BACKOFF=3, DEFER=1, IDLE=0, RECEIVE=8, WAITACK=4, WAITAIFS=2, WAITCTS=6, WAITMULTICAST=5, WAITSIFS=7"
attr enumname  Ieee80211Mac
vector 182  PruebaAdHoc4.host6.wlan[0].mac  RadioState  ETV
attr enum  "IDLE=0, RECV=1, SLEEP=3, TRANSMIT=2"
attr enumname  RadioState
vector 181  PruebaAdHoc4.host6.wlan[0].mac  State  ETV
attr enum  "BACKOFF=3, DEFER=1, IDLE=0, RECEIVE=8, WAITACK=4, WAITAIFS=2, WAITCTS=6, WAITMULTICAST=5, WAITSIFS=7"
attr enumname  Ieee80211Mac
vector 190  PruebaAdHoc4.host7.wlan[0].mac  RadioState  ETV
attr enum  "IDLE=0, RECV=1, SLEEP=3, TRANSMIT=2"
attr enumname  RadioState
vector 189  PruebaAdHoc4.host7.wlan[0].mac  State  ETV
attr enum  "BACKOFF=3, DEFER=1, IDLE=0, RECEIVE=8, WAITACK=4, WAITAIFS=2, WAITCTS=6, WAITMULTICAST=5, WAITSIFS=7"
attr enumname  Ieee80211Mac
vector 198  PruebaAdHoc4.host8.wlan[0].mac  RadioState  ETV
attr enum  "IDLE=0, RECV=1, SLEEP=3, TRANSMIT=2"
attr enumname  RadioState
vector 197  PruebaAdHoc4.host8.wlan[0].mac  State  ETV
attr enum  "BACKOFF=3, DEFER=1, IDLE=0, RECEIVE=8, WAITACK=4, WAITAIFS=2, WAITCTS=6, WAITMULTICAST=5, WAITSIFS=7"
attr enumname  Ieee80211Mac
vector 206  PruebaAdHoc4.host9.wlan[0].mac  RadioState  ETV
attr enum  "IDLE=0, RECV=1, SLEEP=3, TRANSMIT=2"
attr enumname  RadioState
vector 205  PruebaAdHoc4.host9.wlan[0].mac  State  ETV
attr enum  "BACKOFF=3, DEFER=1, IDLE=0, RECEIVE=8, WAITACK=4, WAITAIFS=2, WAITCTS=6, WAITMULTICAST=5, WAITSIFS=7"
attr enumname  Ieee80211Mac
vector 14  PruebaAdHoc4.host1.wlan[0].radio  bitrate:vector  ETV
attr interpolationmode  sample-hold
attr title  "tx bitrate, vector"
attr unit  bps
vector 16  PruebaAdHoc4.host1.wlan[0].radio  radioState:vector  ETV
attr interpolationmode  sample-hold
attr title  "radio state (enum), vector"
vector 15  PruebaAdHoc4.host1.wlan[0].radio  channelNo:vector  ETV
attr interpolationmode  sample-hold
attr title  "channel no, vector"
vector 29  PruebaAdHoc4.host2.wlan[0].radio  bitrate:vector  ETV
attr interpolationmode  sample-hold
attr title  "tx bitrate, vector"
attr unit  bps
vector 31  PruebaAdHoc4.host2.wlan[0].radio  radioState:vector  ETV
attr interpolationmode  sample-hold
attr title  "radio state (enum), vector"
vector 30  PruebaAdHoc4.host2.wlan[0].radio  channelNo:vector  ETV
attr interpolationmode  sample-hold
attr title  "channel no, vector"
vector 44  PruebaAdHoc4.host3.wlan[0].radio  bitrate:vector  ETV
attr interpolationmode  sample-hold
attr title  "tx bitrate, vector"
attr unit  bps
vector 46  PruebaAdHoc4.host3.wlan[0].radio  radioState:vector  ETV
attr interpolationmode  sample-hold
attr title  "radio state (enum), vector"
vector 45  PruebaAdHoc4.host3.wlan[0].radio  channelNo:vector  ETV
attr interpolationmode  sample-hold
attr title  "channel no, vector"
vector 59  PruebaAdHoc4.host4.wlan[0].radio  bitrate:vector  ETV
attr interpolationmode  sample-hold
attr title  "tx bitrate, vector"
attr unit  bps
vector 61  PruebaAdHoc4.host4.wlan[0].radio  radioState:vector  ETV
attr interpolationmode  sample-hold
attr title  "radio state (enum), vector"
vector 60  PruebaAdHoc4.host4.wlan[0].radio  channelNo:vector  ETV
attr interpolationmode  sample-hold
attr title  "channel no, vector"
vector 74  PruebaAdHoc4.host5.wlan[0].radio  bitrate:vector  ETV
attr interpolationmode  sample-hold
attr title  "tx bitrate, vector"
attr unit  bps
vector 76  PruebaAdHoc4.host5.wlan[0].radio  radioState:vector  ETV
attr interpolationmode  sample-hold
attr title  "radio state (enum), vector"
vector 75  PruebaAdHoc4.host5.wlan[0].radio  channelNo:vector  ETV
attr interpolationmode  sample-hold
attr title  "channel no, vector"
vector 89  PruebaAdHoc4.host6.wlan[0].radio  bitrate:vector  ETV
attr interpolationmode  sample-hold
attr title  "tx bitrate, vector"
attr unit  bps
vector 91  PruebaAdHoc4.host6.wlan[0].radio  radioState:vector  ETV
attr interpolationmode  sample-hold
attr title  "radio state (enum), vector"
vector 90  PruebaAdHoc4.host6.wlan[0].radio  channelNo:vector  ETV
attr interpolationmode  sample-hold
attr title  "channel no, vector"
vector 104  PruebaAdHoc4.host7.wlan[0].radio  bitrate:vector  ETV
attr interpolationmode  sample-hold
attr title  "tx bitrate, vector"
attr unit  bps
vector 106  PruebaAdHoc4.host7.wlan[0].radio  radioState:vector  ETV
attr interpolationmode  sample-hold
attr title  "radio state (enum), vector"
vector 105  PruebaAdHoc4.host7.wlan[0].radio  channelNo:vector  ETV
attr interpolationmode  sample-hold
attr title  "channel no, vector"
vector 122  PruebaAdHoc4.host8.wlan[0].radio  bitrate:vector  ETV
attr interpolationmode  sample-hold
attr title  "tx bitrate, vector"
attr unit  bps
vector 124  PruebaAdHoc4.host8.wlan[0].radio  radioState:vector  ETV
attr interpolationmode  sample-hold
attr title  "radio state (enum), vector"
vector 123  PruebaAdHoc4.host8.wlan[0].radio  channelNo:vector  ETV
attr interpolationmode  sample-hold
attr title  "channel no, vector"
vector 137  PruebaAdHoc4.host9.wlan[0].radio  bitrate:vector  ETV
attr interpolationmode  sample-hold
attr title  "tx bitrate, vector"
attr unit  bps
vector 139  PruebaAdHoc4.host9.wlan[0].radio  radioState:vector  ETV
attr interpolationmode  sample-hold
attr title  "radio state (enum), vector"
vector 138  PruebaAdHoc4.host9.wlan[0].radio  channelNo:vector  ETV
attr interpolationmode  sample-hold
attr title  "channel no, vector"
vector 1  PruebaAdHoc4.host1.udpApp[0]  sentPk:vector(packetBytes)  ETV
attr interpolationmode  none
attr source  sentPk
attr title  "packets sent, vector(packetBytes)"
vector 3  PruebaAdHoc4.host1.udp  sentPk:vector(packetBytes)  ETV
attr interpolationmode  none
attr source  sentPk
attr title  "packets sent, vector(packetBytes)"
vector 8  PruebaAdHoc4.host1.networkLayer.arp  sentReq:vector  ETV
attr title  "ARP request sent, vector"
vector 10  PruebaAdHoc4.host1.networkLayer.arp  initiatedResolution:vector  ETV
attr title  "ARP initiated resolutions, vector"
vector 144  PruebaAdHoc4.host1.wlan[0].mac  "throughput AC0"  ETV
vector 152  PruebaAdHoc4.host2.wlan[0].mac  "throughput AC0"  ETV
vector 160  PruebaAdHoc4.host3.wlan[0].mac  "throughput AC0"  ETV
vector 168  PruebaAdHoc4.host4.wlan[0].mac  "throughput AC0"  ETV
vector 154  PruebaAdHoc4.host2.wlan[0].radio  snirVector  ETV
vector 162  PruebaAdHoc4.host3.wlan[0].radio  snirVector  ETV
vector 170  PruebaAdHoc4.host4.wlan[0].radio  snirVector  ETV
vector 184  PruebaAdHoc4.host6.wlan[0].mac  "throughput AC0"  ETV
vector 192  PruebaAdHoc4.host7.wlan[0].mac  "throughput AC0"  ETV
vector 200  PruebaAdHoc4.host8.wlan[0].mac  "throughput AC0"  ETV
vector 176  PruebaAdHoc4.host5.wlan[0].mac  "throughput AC0"  ETV
vector 208  PruebaAdHoc4.host9.wlan[0].mac  "throughput AC0"  ETV
vector 146  PruebaAdHoc4.host1.wlan[0].radio  snirVector  ETV
vector 186  PruebaAdHoc4.host6.wlan[0].radio  snirVector  ETV
vector 194  PruebaAdHoc4.host7.wlan[0].radio  snirVector  ETV
vector 202  PruebaAdHoc4.host8.wlan[0].radio  snirVector  ETV
vector 210  PruebaAdHoc4.host9.wlan[0].radio  snirVector  ETV
vector 178  PruebaAdHoc4.host5.wlan[0].radio  snirVector  ETV
vector 177  PruebaAdHoc4.host5.wlan[0].mac  "Mac delay AC0"  ETV
vector 209  PruebaAdHoc4.host9.wlan[0].mac  "Mac delay AC0"  ETV
vector 201  PruebaAdHoc4.host8.wlan[0].mac  "Mac delay AC0"  ETV
vector 169  PruebaAdHoc4.host4.wlan[0].mac  "Mac delay AC0"  ETV
vector 145  PruebaAdHoc4.host1.wlan[0].mac  "Mac delay AC0"  ETV
vector 64  PruebaAdHoc4.host5.udp  rcvdPk:vector(packetBytes)  ETV
attr interpolationmode  none
attr source  rcvdPk
attr title  "packets received, vector(packetBytes)"
vector 66  PruebaAdHoc4.host5.udp  droppedPkWrongPort:vector(count)  ETV
attr interpolationmode  none
attr title  "packets dropped (wrong port), vector(count)"
vector 107  PruebaAdHoc4.host7.wlan[0].radio  lossRate:vector  ETV
attr interpolationmode  backward-sample-hold
attr title  "packet loss rate, vector"
vector 92  PruebaAdHoc4.host6.wlan[0].radio  lossRate:vector  ETV
attr interpolationmode  backward-sample-hold
attr title  "packet loss rate, vector"
vector 125  PruebaAdHoc4.host8.wlan[0].radio  lossRate:vector  ETV
attr interpolationmode  backward-sample-hold
attr title  "packet loss rate, vector"
vector 32  PruebaAdHoc4.host2.wlan[0].radio  lossRate:vector  ETV
attr interpolationmode  backward-sample-hold
attr title  "packet loss rate, vector"
vector 47  PruebaAdHoc4.host3.wlan[0].radio  lossRate:vector  ETV
attr interpolationmode  backward-sample-hold
attr title  "packet loss rate, vector"
vector 143  PruebaAdHoc4.host1.wlan[0].mac  "jitter AC0"  ETV
vector 167  PruebaAdHoc4.host4.wlan[0].mac  "jitter AC0"  ETV
vector 199  PruebaAdHoc4.host8.wlan[0].mac  "jitter AC0"  ETV
vector 207  PruebaAdHoc4.host9.wlan[0].mac  "jitter AC0"  ETV
vector 175  PruebaAdHoc4.host5.wlan[0].mac  "jitter AC0"  ETV
vector 140  PruebaAdHoc4.host9.wlan[0].radio  lossRate:vector  ETV
attr interpolationmode  backward-sample-hold
attr title  "packet loss rate, vector"
vector 62  PruebaAdHoc4.host4.wlan[0].radio  lossRate:vector  ETV
attr interpolationmode  backward-sample-hold
attr title  "packet loss rate, vector"
vector 17  PruebaAdHoc4.host1.wlan[0].radio  lossRate:vector  ETV
attr interpolationmode  backward-sample-hold
attr title  "packet loss rate, vector"
vector 77  PruebaAdHoc4.host5.wlan[0].radio  lossRate:vector  ETV
attr interpolationmode  backward-sample-hold
attr title  "packet loss rate, vector"
vector 109  PruebaAdHoc4.host8.udpApp[0]  sentPk:vector(packetBytes)  ETV
attr interpolationmode  none
attr source  sentPk
attr title  "packets sent, vector(packetBytes)"
vector 111  PruebaAdHoc4.host8.udp  sentPk:vector(packetBytes)  ETV
attr interpolationmode  none
attr source  sentPk
attr title  "packets sent, vector(packetBytes)"
vector 116  PruebaAdHoc4.host8.networkLayer.arp  sentReq:vector  ETV
attr title  "ARP request sent, vector"
vector 118  PruebaAdHoc4.host8.networkLayer.arp  initiatedResolution:vector  ETV
attr title  "ARP initiated resolutions, vector"
vector 153  PruebaAdHoc4.host2.wlan[0].mac  "Mac delay AC0"  ETV
vector 19  PruebaAdHoc4.host2.udp  rcvdPk:vector(packetBytes)  ETV
attr interpolationmode  none
attr source  rcvdPk
attr title  "packets received, vector(packetBytes)"
vector 21  PruebaAdHoc4.host2.udp  droppedPkWrongPort:vector(count)  ETV
attr interpolationmode  none
attr title  "packets dropped (wrong port), vector(count)"
vector 151  PruebaAdHoc4.host2.wlan[0].mac  "jitter AC0"  ETV
1	3	1	500
1	486	1.003684267773	500
1	1739	1.013994431874	500
1	1781	1.014229758898	500
1	2922	1.02996584194	500
1	3403	1.056109343444	500
1	3880	1.10296627933	500
1	4357	1.117641661926	500
1	4835	1.235033849997	500
1	5313	1.258467673795	500
1	5791	1.327633497102	500
1	6266	1.476743530875	500
1	6743	1.483172542738	500
1	7221	1.538916913833	500
1	7699	1.55048796243	500
1	8177	1.58615717657	500
1	8359	1.587529281591	500
1	8835	1.592656876241	500
1	10039	1.640836511055	500
1	10517	1.648893639996	500
1	10995	1.679282878201	500
1	11472	1.790964870755	500
1	11951	1.797112999099	500
1	12430	1.879280660859	500
1	12908	2.031257240365	500
1	13387	2.068269849935	500
1	13866	2.075431013509	500
1	14345	2.090528763683	500
1	14822	2.104353147888	500
1	15300	2.127833549494	500
1	15492	2.129314787108	500
1	16486	2.152672448431	500
1	16966	2.204268483576	500
1	17443	2.211755743988	500
1	17636	2.213008973365	500
1	18750	2.266086639179	500
1	19228	2.276346780095	500
1	19565	2.27866125539	500
1	20417	2.321507410464	500
1	20896	2.505135389726	500
1	21377	2.514844938665	500
1	21604	2.516473971344	500
1	22532	2.642930543342	500
1	23012	2.661529343763	500
1	23492	2.686903251963	500
1	23967	2.758047965036	500
1	24445	2.820992765293	500
1	24925	2.87185222993	500
1	25404	2.892087823194	500
1	25884	2.936442803648	500
1	26361	3.017507133782	500
1	26839	3.099906665585	500
1	27318	3.116215948334	500
1	27796	3.156733055059	500
1	28275	3.284345598569	500
1	28754	3.30365271984	500
1	29089	3.305830251905	500
1	29740	3.512683372486	500
1	30219	3.595799491838	500
1	30696	3.676828424368	500
1	31175	3.695966804851	500
1	31655	3.714045527334	500
1	32130	3.719686185238	500
1	32610	3.762664780479	500
1	32713	3.763484096358	500
1	33849	3.795624370597	500
1	34330	3.932124743515	500
1	34807	3.953684755932	500
1	35085	3.955684326114	500
1	35905	3.973615351527	500
1	37202	4.07786510642	500
3	4	1	508
3	487	1.003684267773	508
3	1740	1.013994431874	508
3	1782	1.014229758898	508
3	2923	1.02996584194	508
3	3404	1.056109343444	508
3	3881	1.10296627933	508
3	4358	1.117641661926	508
3	4836	1.235033849997	508
3	5314	1.258467673795	508
3	5792	1.327633497102	508
3	6267	1.476743530875	508
3	6744	1.483172542738	508
3	7222	1.538916913833	508
3	7700	1.55048796243	508
3	8178	1.58615717657	508
3	8360	1.587529281591	508
3	8836	1.592656876241	508
3	10040	1.640836511055	508
3	10518	1.648893639996	508
3	10996	1.679282878201	508
3	11473	1.790964870755	508
3	11952	1.797112999099	508
3	12431	1.879280660859	508
3	12909	2.031257240365	508
3	13388	2.068269849935	508
3	13867	2.075431013509	508
3	14346	2.090528763683	508
3	14823	2.104353147888	508
3	15301	2.127833549494	508
3	15493	2.129314787108	508
3	16487	2.152672448431	508
3	16967	2.204268483576	508
3	17444	2.211755743988	508
3	17637	2.213008973365	508
3	18751	2.266086639179	508
3	19229	2.276346780095	508
3	19566	2.27866125539	508
3	20418	2.321507410464	508
3	20897	2.505135389726	508
3	21378	2.514844938665	508
3	21605	2.516473971344	508
3	22533	2.642930543342	508
3	23013	2.661529343763	508
3	23493	2.686903251963	508
3	23968	2.758047965036	508
3	24446	2.820992765293	508
3	24926	2.87185222993	508
3	25405	2.892087823194	508
3	25885	2.936442803648	508
3	26362	3.017507133782	508
3	26840	3.099906665585	508
3	27319	3.116215948334	508
3	27797	3.156733055059	508
3	28276	3.284345598569	508
3	28755	3.30365271984	508
3	29090	3.305830251905	508
3	29741	3.512683372486	508
3	30220	3.595799491838	508
3	30697	3.676828424368	508
3	31176	3.695966804851	508
3	31656	3.714045527334	508
3	32131	3.719686185238	508
3	32611	3.762664780479	508
3	32714	3.763484096358	508
3	33850	3.795624370597	508
3	34331	3.932124743515	508
3	34808	3.953684755932	508
3	35086	3.955684326114	508
3	35906	3.973615351527	508
3	37203	4.07786510642	508
8	6	1	1
10	6	1	1
12	0	0	0
14	0	0	54000000
15	0	0	0
16	0	0	0
16	10	1.000028	2
16	10	1.000028	2
16	20	1.0005	0
16	20	1.0005	0
16	57	1.000528851794	1
16	57	1.000528851794	1
16	111	1.00100130111	0
16	111	1.00100130111	0
16	349	1.002753314274	1
16	349	1.002753314274	1
16	366	1.002791002946	0
16	366	1.002791002946	0
16	373	1.002801011394	1
16	373	1.002801011394	1
16	385	1.003049011394	0
16	385	1.003049011394	0
16	415	1.003262489339	1
16	415	1.003262489339	1
16	432	1.003300489339	0
16	432	1.003300489339	0
16	445	1.003310489339	2
16	445	1.003310489339	2
16	458	1.003558489339	0
16	458	1.003558489339	0
16	476	1.003604489339	2
16	476	1.003604489339	2
16	492	1.003718489339	0
16	492	1.003718489339	0
16	514	1.003729790449	1
16	514	1.003729790449	1
16	529	1.003977790449	0
16	529	1.003977790449	0
16	539	1.004041790449	2
16	539	1.004041790449	2
16	558	1.004155790449	0
16	558	1.004155790449	0
16	577	1.004490790449	2
16	577	1.004490790449	2
16	586	1.004604790449	0
16	586	1.004604790449	0
16	650	1.004903790449	2
16	650	1.004903790449	2
16	659	1.005017790449	0
16	659	1.005017790449	0
16	713	1.005178417538	1
16	713	1.005178417538	1
16	734	1.005292417538	0
16	734	1.005292417538	0
16	829	1.005992417538	2
16	829	1.005992417538	2
16	850	1.006106417538	0
16	850	1.006106417538	0
16	986	1.007098417538	2
16	986	1.007098417538	2
16	995	1.007212417538	0
16	995	1.007212417538	0
16	1104	1.00773005928	1
16	1104	1.00773005928	1
16	1134	1.00820205928	0
16	1134	1.00820205928	0
16	1176	1.008310532536	1
16	1176	1.008310532536	1
16	1192	1.008558532536	0
16	1192	1.008558532536	0
16	1208	1.008613532536	1
16	1208	1.008613532536	1
16	1225	1.008655532536	0
16	1225	1.008655532536	0
16	1237	1.008665532536	2
16	1237	1.008665532536	2
16	1250	1.008913532536	0
16	1250	1.008913532536	0
16	1267	1.009706532536	2
16	1267	1.009706532536	2
16	1276	1.009820532536	0
16	1276	1.009820532536	0
16	1298	1.009831833646	1
16	1298	1.009831833646	1
16	1313	1.010079833646	0
16	1313	1.010079833646	0
16	1327	1.010134833646	1
16	1327	1.010134833646	1
16	1344	1.010248833646	0
16	1344	1.010248833646	0
16	1650	1.012154475388	1
16	1650	1.012154475388	1
16	1666	1.012402475388	0
16	1666	1.012402475388	0
16	1680	1.012457475388	1
16	1680	1.012457475388	1
16	1697	1.012499475388	0
16	1697	1.012499475388	0
16	1709	1.012509475388	2
16	1709	1.012509475388	2
16	1722	1.012757475388	0
16	1722	1.012757475388	0
16	1746	1.014022431874	2
16	1746	1.014022431874	2
16	1755	1.014136431874	0
16	1755	1.014136431874	0
16	1777	1.014147732984	1
16	1777	1.014147732984	1
16	1798	1.014395732984	0
16	1798	1.014395732984	0
16	1807	1.014441732984	2
16	1807	1.014441732984	2
16	1816	1.014555732984	0
16	1816	1.014555732984	0
16	1838	1.014567034094	1
16	1838	1.014567034094	1
16	1853	1.014815034094	0
16	1853	1.014815034094	0
16	1867	1.014843034094	1
16	1867	1.014843034094	1
16	1884	1.014957034094	0
16	1884	1.014957034094	0
16	1941	1.01526250735	1
16	1941	1.01526250735	1
16	1966	1.01537650735	0
16	1966	1.01537650735	0
16	2054	1.01618350735	1
16	2054	1.01618350735	1
16	2080	1.01629750735	0
16	2080	1.01629750735	0
16	2145	1.01683950735	1
16	2145	1.01683950735	1
16	2184	1.01695350735	0
16	2184	1.01695350735	0
16	2230	1.01743250735	1
16	2230	1.01743250735	1
16	2255	1.01754650735	0
16	2255	1.01754650735	0
16	2418	1.018676675836	1
16	2418	1.018676675836	1
16	2434	1.018924675836	0
16	2434	1.018924675836	0
16	2449	1.019159675836	1
16	2449	1.019159675836	1
16	2466	1.019273675836	0
16	2466	1.019273675836	0
16	2511	1.019579149092	1
16	2511	1.019579149092	1
16	2528	1.019621149092	0
16	2528	1.019621149092	0
16	2540	1.019631149092	2
16	2540	1.019631149092	2
16	2553	1.019879149092	0
16	2553	1.019879149092	0
16	2834	1.021535790834	1
16	2834	1.021535790834	1
16	2850	1.021783790834	0
16	2850	1.021783790834	0
16	2865	1.021874790834	1
16	2865	1.021874790834	1
16	2882	1.021916790834	0
16	2882	1.021916790834	0
16	2894	1.021926790834	2
16	2894	1.021926790834	2
16	2907	1.022174790834	0
16	2907	1.022174790834	0
16	2929	1.02999384194	2
16	2929	1.02999384194	2
16	2938	1.03010784194	0
16	2938	1.03010784194	0
16	2960	1.03011914305	1
16	2960	1.03011914305	1
16	2975	1.03036714305	0
16	2975	1.03036714305	0
16	2990	1.03040414305	1
16	2990	1.03040414305	1
16	3007	1.03051814305	0
16	3007	1.03051814305	0
16	3312	1.032414784792	1
16	3312	1.032414784792	1
16	3328	1.032662784792	0
16	3328	1.032662784792	0
16	3342	1.032690784792	1
16	3342	1.032690784792	1
16	3361	1.032732784792	0
16	3361	1.032732784792	0
16	3373	1.032742784792	2
16	3373	1.032742784792	2
16	3386	1.032990784792	0
16	3386	1.032990784792	0
16	3410	1.056137343444	2
16	3410	1.056137343444	2
16	3419	1.056251343444	0
16	3419	1.056251343444	0
16	3441	1.056262644554	1
16	3441	1.056262644554	1
16	3456	1.056510644554	0
16	3456	1.056510644554	0
16	3471	1.056547644554	1
16	3471	1.056547644554	1
16	3488	1.056661644554	0
16	3488	1.056661644554	0
16	3792	1.058630286296	1
16	3792	1.058630286296	1
16	3808	1.058878286296	0
16	3808	1.058878286296	0
16	3822	1.058942286296	1
16	3822	1.058942286296	1
16	3840	1.058984286296	0
16	3840	1.058984286296	0
16	3852	1.058994286296	2
16	3852	1.058994286296	2
16	3865	1.059242286296	0
16	3865	1.059242286296	0
16	3887	1.10299427933	2
16	3887	1.10299427933	2
16	3896	1.10310827933	0
16	3896	1.10310827933	0
16	3918	1.10311958044	1
16	3918	1.10311958044	1
16	3933	1.10336758044	0
16	3933	1.10336758044	0
16	3948	1.10344958044	1
16	3948	1.10344958044	1
16	3965	1.10356358044	0
16	3965	1.10356358044	0
16	4268	1.105505222182	1
16	4268	1.105505222182	1
16	4284	1.105753222182	0
16	4284	1.105753222182	0
16	4297	1.105781222182	1
16	4297	1.105781222182	1
16	4315	1.105823222182	0
16	4315	1.105823222182	0
16	4327	1.105833222182	2
16	4327	1.105833222182	2
16	4340	1.106081222182	0
16	4340	1.106081222182	0
16	4364	1.117669661926	2
16	4364	1.117669661926	2
16	4373	1.117783661926	0
16	4373	1.117783661926	0
16	4395	1.117794963036	1
16	4395	1.117794963036	1
16	4410	1.118042963036	0
16	4410	1.118042963036	0
16	4424	1.118097963036	1
16	4424	1.118097963036	1
16	4441	1.118211963036	0
16	4441	1.118211963036	0
16	4744	1.120099604778	1
16	4744	1.120099604778	1
16	4760	1.120347604778	0
16	4760	1.120347604778	0
16	4776	1.120411604778	1
16	4776	1.120411604778	1
16	4793	1.120453604778	0
16	4793	1.120453604778	0
16	4805	1.120463604778	2
16	4805	1.120463604778	2
16	4818	1.120711604778	0
16	4818	1.120711604778	0
16	4842	1.235061849997	2
16	4842	1.235061849997	2
16	4851	1.235175849997	0
16	4851	1.235175849997	0
16	4873	1.235187151107	1
16	4873	1.235187151107	1
16	4888	1.235435151107	0
16	4888	1.235435151107	0
16	4902	1.235463151107	1
16	4902	1.235463151107	1
16	4919	1.235577151107	0
16	4919	1.235577151107	0
16	5225	1.237590792849	1
16	5225	1.237590792849	1
16	5241	1.237838792849	0
16	5241	1.237838792849	0
16	5256	1.237902792849	1
16	5256	1.237902792849	1
16	5273	1.237944792849	0
16	5273	1.237944792849	0
16	5285	1.237954792849	2
16	5285	1.237954792849	2
16	5298	1.238202792849	0
16	5298	1.238202792849	0
16	5320	1.258495673795	2
16	5320	1.258495673795	2
16	5329	1.258609673795	0
16	5329	1.258609673795	0
16	5351	1.258620974905	1
16	5351	1.258620974905	1
16	5366	1.258868974905	0
16	5366	1.258868974905	0
16	5380	1.258896974905	1
16	5380	1.258896974905	1
16	5397	1.259010974905	0
16	5397	1.259010974905	0
16	5703	1.260943616647	1
16	5703	1.260943616647	1
16	5719	1.261191616647	0
16	5719	1.261191616647	0
16	5734	1.261282616647	1
16	5734	1.261282616647	1
16	5751	1.261324616647	0
16	5751	1.261324616647	0
16	5763	1.261334616647	2
16	5763	1.261334616647	2
16	5776	1.261582616647	0
16	5776	1.261582616647	0
16	5798	1.327661497102	2
16	5798	1.327661497102	2
16	5807	1.327775497102	0
16	5807	1.327775497102	0
16	5829	1.327786798212	1
16	5829	1.327786798212	1
16	5844	1.328034798212	0
16	5844	1.328034798212	0
16	5859	1.328098798212	1
16	5859	1.328098798212	1
16	5876	1.328212798212	0
16	5876	1.328212798212	0
16	6178	1.330280439954	1
16	6178	1.330280439954	1
16	6194	1.330528439954	0
16	6194	1.330528439954	0
16	6209	1.330583439954	1
16	6209	1.330583439954	1
16	6226	1.330625439954	0
16	6226	1.330625439954	0
16	6238	1.330635439954	2
16	6238	1.330635439954	2
16	6251	1.330883439954	0
16	6251	1.330883439954	0
16	6273	1.476771530875	2
16	6273	1.476771530875	2
16	6282	1.476885530875	0
16	6282	1.476885530875	0
16	6304	1.476896831985	1
16	6304	1.476896831985	1
16	6319	1.477144831985	0
16	6319	1.477144831985	0
16	6334	1.477208831985	1
16	6334	1.477208831985	1
16	6351	1.477322831985	0
16	6351	1.477322831985	0
16	6655	1.479273473727	1
16	6655	1.479273473727	1
16	6671	1.479521473727	0
16	6671	1.479521473727	0
16	6685	1.479576473727	1
16	6685	1.479576473727	1
16	6703	1.479618473727	0
16	6703	1.479618473727	0
16	6715	1.479628473727	2
16	6715	1.479628473727	2
16	6728	1.479876473727	0
16	6728	1.479876473727	0
16	6750	1.483200542738	2
16	6750	1.483200542738	2
16	6759	1.483314542738	0
16	6759	1.483314542738	0
16	6781	1.483325843848	1
16	6781	1.483325843848	1
16	6796	1.483573843848	0
16	6796	1.483573843848	0
16	6811	1.483637843848	1
16	6811	1.483637843848	1
16	6828	1.483751843848	0
16	6828	1.483751843848	0
16	7130	1.48569348559	1
16	7130	1.48569348559	1
16	7146	1.48594148559	0
16	7146	1.48594148559	0
16	7162	1.48599648559	1
16	7162	1.48599648559	1
16	7179	1.48603848559	0
16	7179	1.48603848559	0
16	7191	1.48604848559	2
16	7191	1.48604848559	2
16	7204	1.48629648559	0
16	7204	1.48629648559	0
16	7228	1.538944913833	2
16	7228	1.538944913833	2
16	7237	1.539058913833	0
16	7237	1.539058913833	0
16	7259	1.539070214943	1
16	7259	1.539070214943	1
16	7274	1.539318214943	0
16	7274	1.539318214943	0
16	7289	1.539391214943	1
16	7289	1.539391214943	1
16	7306	1.539505214943	0
16	7306	1.539505214943	0
16	7610	1.541554856685	1
16	7610	1.541554856685	1
16	7626	1.541802856685	0
16	7626	1.541802856685	0
16	7640	1.541857856685	1
16	7640	1.541857856685	1
16	7657	1.541899856685	0
16	7657	1.541899856685	0
16	7669	1.541909856685	2
16	7669	1.541909856685	2
16	7682	1.542157856685	0
16	7682	1.542157856685	0
16	7706	1.55051596243	2
16	7706	1.55051596243	2
16	7715	1.55062996243	0
16	7715	1.55062996243	0
16	7737	1.55064126354	1
16	7737	1.55064126354	1
16	7752	1.55088926354	0
16	7752	1.55088926354	0
16	7767	1.55096226354	1
16	7767	1.55096226354	1
16	7784	1.55107626354	0
16	7784	1.55107626354	0
16	8086	1.553071905282	1
16	8086	1.553071905282	1
16	8102	1.553319905282	0
16	8102	1.553319905282	0
16	8118	1.553383905282	1
16	8118	1.553383905282	1
16	8135	1.553425905282	0
16	8135	1.553425905282	0
16	8147	1.553435905282	2
16	8147	1.553435905282	2
16	8160	1.553683905282	0
16	8160	1.553683905282	0
16	8184	1.58618517657	2
16	8184	1.58618517657	2
16	8193	1.58629917657	0
16	8193	1.58629917657	0
16	8215	1.58631047768	1
16	8215	1.58631047768	1
16	8230	1.58655847768	0
16	8230	1.58655847768	0
16	8245	1.58660447768	1
16	8245	1.58660447768	1
16	8262	1.58671847768	0
16	8262	1.58671847768	0
16	8376	1.587557281591	2
16	8376	1.587557281591	2
16	8401	1.587671281591	0
16	8401	1.587671281591	0
16	8435	1.588060281591	2
16	8435	1.588060281591	2
16	8460	1.588174281591	0
16	8460	1.588174281591	0
16	8484	1.588464281591	2
16	8484	1.588464281591	2
16	8503	1.588578281591	0
16	8503	1.588578281591	0
16	8543	1.589372281591	2
16	8543	1.589372281591	2
16	8562	1.589486281591	0
16	8562	1.589486281591	0
16	8602	1.590163281591	2
16	8602	1.590163281591	2
16	8611	1.590277281591	0
16	8611	1.590277281591	0
16	8633	1.590288582701	1
16	8633	1.590288582701	1
16	8648	1.590536582701	0
16	8648	1.590536582701	0
16	8672	1.590600582701	1
16	8672	1.590600582701	1
16	8698	1.590714582701	0
16	8698	1.590714582701	0
16	8720	1.591049582701	1
16	8720	1.591049582701	1
16	8737	1.591163582701	0
16	8737	1.591163582701	0
16	8842	1.592684876241	2
16	8842	1.592684876241	2
16	8861	1.592798876241	0
16	8861	1.592798876241	0
16	8901	1.593151876241	2
16	8901	1.593151876241	2
16	8910	1.593265876241	0
16	8910	1.593265876241	0
16	8932	1.593277177351	1
16	8932	1.593277177351	1
16	8947	1.593525177351	0
16	8947	1.593525177351	0
16	8961	1.593598177351	1
16	8961	1.593598177351	1
16	8978	1.593712177351	0
16	8978	1.593712177351	0
16	9510	1.597993912893	1
16	9510	1.597993912893	1
16	9526	1.598241912893	0
16	9526	1.598241912893	0
16	9541	1.598278912893	1
16	9541	1.598278912893	1
16	9566	1.598320912893	0
16	9566	1.598320912893	0
16	9598	1.598610912893	1
16	9598	1.598610912893	1
16	9616	1.598652912893	0
16	9616	1.598652912893	0
16	9628	1.598662912893	2
16	9628	1.598662912893	2
16	9663	1.598910912893	0
16	9663	1.598910912893	0
16	9830	1.599896156065	1
16	9830	1.599896156065	1
16	9846	1.600144156065	0
16	9846	1.600144156065	0
16	9859	1.600172156065	1
16	9859	1.600172156065	1
16	9877	1.600214156065	0
16	9877	1.600214156065	0